% Model:              plane_wave_simple.mph
% Version:            COMSOL 5.5.0.292
% Date:               Mar 18 2020, 12:54
% Table:              Table: Table 1 {tbl1} - Point Evaluation: Point Evaluation 1 {pev1}
% freq (Hz)              Sound pressure level (dB), Point: (1, 0, 0)Sound pressure level (dB), Point: (0.99985, 0, 0.017501)Sound pressure level (dB), Point: (0.99939, 0, 0.034997)Sound pressure level (dB), Point: (0.99862, 0, 0.052482)Sound pressure level (dB), Point: (0.99755, 0, 0.06995)Sound pressure level (dB), Point: (0.99617, 0, 0.087398)Sound pressure level (dB), Point: (0.99449, 0, 0.10482)Sound pressure level (dB), Point: (0.9925, 0, 0.12221)Sound pressure level (dB), Point: (0.99021, 0, 0.13956)Sound pressure level (dB), Point: (0.98762, 0, 0.15687)Sound pressure level (dB), Point: (0.98472, 0, 0.17413)Sound pressure level (dB), Point: (0.98153, 0, 0.19133)Sound pressure level (dB), Point: (0.97803, 0, 0.20848)Sound pressure level (dB), Point: (0.97423, 0, 0.22557)Sound pressure level (dB), Point: (0.97013, 0, 0.24258)Sound pressure level (dB), Point: (0.96574, 0, 0.25952)Sound pressure level (dB), Point: (0.96105, 0, 0.27639)Sound pressure level (dB), Point: (0.95606, 0, 0.29316)Sound pressure level (dB), Point: (0.95079, 0, 0.30985)Sound pressure level (dB), Point: (0.94522, 0, 0.32644)Sound pressure level (dB), Point: (0.93936, 0, 0.34293)Sound pressure level (dB), Point: (0.93321, 0, 0.35932)Sound pressure level (dB), Point: (0.92678, 0, 0.3756)Sound pressure level (dB), Point: (0.92007, 0, 0.39176)Sound pressure level (dB), Point: (0.91307, 0, 0.4078)Sound pressure level (dB), Point: (0.90579, 0, 0.42372)Sound pressure level (dB), Point: (0.89824, 0, 0.43951)Sound pressure level (dB), Point: (0.89041, 0, 0.45516)Sound pressure level (dB), Point: (0.88231, 0, 0.47067)Sound pressure level (dB), Point: (0.87394, 0, 0.48604)Sound pressure level (dB), Point: (0.8653, 0, 0.50126)Sound pressure level (dB), Point: (0.85639, 0, 0.51633)Sound pressure level (dB), Point: (0.84722, 0, 0.53124)Sound pressure level (dB), Point: (0.8378, 0, 0.54598)Sound pressure level (dB), Point: (0.82811, 0, 0.56056)Sound pressure level (dB), Point: (0.81817, 0, 0.57497)Sound pressure level (dB), Point: (0.80799, 0, 0.5892)Sound pressure level (dB), Point: (0.79755, 0, 0.60325)Sound pressure level (dB), Point: (0.78687, 0, 0.61712)Sound pressure level (dB), Point: (0.77595, 0, 0.63079)Sound pressure level (dB), Point: (0.76479, 0, 0.64428)Sound pressure level (dB), Point: (0.7534, 0, 0.65756)Sound pressure level (dB), Point: (0.74178, 0, 0.67065)Sound pressure level (dB), Point: (0.72993, 0, 0.68353)Sound pressure level (dB), Point: (0.71785, 0, 0.6962)Sound pressure level (dB), Point: (0.70556, 0, 0.70865)Sound pressure level (dB), Point: (0.69305, 0, 0.72089)Sound pressure level (dB), Point: (0.68033, 0, 0.73291)Sound pressure level (dB), Point: (0.66739, 0, 0.7447)Sound pressure level (dB), Point: (0.65426, 0, 0.75627)Sound pressure level (dB), Point: (0.64092, 0, 0.7676)Sound pressure level (dB), Point: (0.62739, 0, 0.7787)Sound pressure level (dB), Point: (0.61367, 0, 0.78956)Sound pressure level (dB), Point: (0.59976, 0, 0.80018)Sound pressure level (dB), Point: (0.58566, 0, 0.81056)Sound pressure level (dB), Point: (0.57138, 0, 0.82068)Sound pressure level (dB), Point: (0.55693, 0, 0.83056)Sound pressure level (dB), Point: (0.54231, 0, 0.84018)Sound pressure level (dB), Point: (0.52753, 0, 0.84954)Sound pressure level (dB), Point: (0.51258, 0, 0.85864)Sound pressure level (dB), Point: (0.49747, 0, 0.86748)Sound pressure level (dB), Point: (0.48221, 0, 0.87605)Sound pressure level (dB), Point: (0.46681, 0, 0.88436)Sound pressure level (dB), Point: (0.45126, 0, 0.89239)Sound pressure level (dB), Point: (0.43557, 0, 0.90015)Sound pressure level (dB), Point: (0.41975, 0, 0.90764)Sound pressure level (dB), Point: (0.4038, 0, 0.91485)Sound pressure level (dB), Point: (0.38773, 0, 0.92177)Sound pressure level (dB), Point: (0.37154, 0, 0.92842)Sound pressure level (dB), Point: (0.35523, 0, 0.93478)Sound pressure level (dB), Point: (0.33882, 0, 0.94085)Sound pressure level (dB), Point: (0.3223, 0, 0.94664)Sound pressure level (dB), Point: (0.30569, 0, 0.95213)Sound pressure level (dB), Point: (0.28898, 0, 0.95734)Sound pressure level (dB), Point: (0.27218, 0, 0.96225)Sound pressure level (dB), Point: (0.2553, 0, 0.96686)Sound pressure level (dB), Point: (0.23834, 0, 0.97118)Sound pressure level (dB), Point: (0.2213, 0, 0.97521)Sound pressure level (dB), Point: (0.2042, 0, 0.97893)Sound pressure level (dB), Point: (0.18704, 0, 0.98235)Sound pressure level (dB), Point: (0.16982, 0, 0.98548)Sound pressure level (dB), Point: (0.15254, 0, 0.9883)Sound pressure level (dB), Point: (0.13522, 0, 0.99082)Sound pressure level (dB), Point: (0.11786, 0, 0.99303)Sound pressure level (dB), Point: (0.10047, 0, 0.99494)Sound pressure level (dB), Point: (0.083038, 0, 0.99655)Sound pressure level (dB), Point: (0.065585, 0, 0.99785)Sound pressure level (dB), Point: (0.048112, 0, 0.99884)Sound pressure level (dB), Point: (0.030624, 0, 0.99953)Sound pressure level (dB), Point: (0.013126, 0, 0.99991)Sound pressure level (dB), Point: (-0.0043755, 0, 0.99999)Sound pressure level (dB), Point: (-0.021876, 0, 0.99976)Sound pressure level (dB), Point: (-0.039369, 0, 0.99922)Sound pressure level (dB), Point: (-0.056851, 0, 0.99838)Sound pressure level (dB), Point: (-0.074315, 0, 0.99723)Sound pressure level (dB), Point: (-0.091756, 0, 0.99578)Sound pressure level (dB), Point: (-0.10917, 0, 0.99402)Sound pressure level (dB), Point: (-0.12655, 0, 0.99196)Sound pressure level (dB), Point: (-0.14389, 0, 0.98959)Sound pressure level (dB), Point: (-0.16119, 0, 0.98692)Sound pressure level (dB), Point: (-0.17843, 0, 0.98395)Sound pressure level (dB), Point: (-0.19563, 0, 0.98068)Sound pressure level (dB), Point: (-0.21276, 0, 0.9771)Sound pressure level (dB), Point: (-0.22983, 0, 0.97323)Sound pressure level (dB), Point: (-0.24682, 0, 0.96906)Sound pressure level (dB), Point: (-0.26375, 0, 0.96459)Sound pressure level (dB), Point: (-0.28059, 0, 0.95983)Sound pressure level (dB), Point: (-0.29734, 0, 0.95477)Sound pressure level (dB), Point: (-0.31401, 0, 0.94942)Sound pressure level (dB), Point: (-0.33057, 0, 0.94378)Sound pressure level (dB), Point: (-0.34704, 0, 0.93785)Sound pressure level (dB), Point: (-0.3634, 0, 0.93163)Sound pressure level (dB), Point: (-0.37965, 0, 0.92513)Sound pressure level (dB), Point: (-0.39578, 0, 0.91834)Sound pressure level (dB), Point: (-0.41179, 0, 0.91128)Sound pressure level (dB), Point: (-0.42768, 0, 0.90393)Sound pressure level (dB), Point: (-0.44343, 0, 0.89631)Sound pressure level (dB), Point: (-0.45905, 0, 0.88841)Sound pressure level (dB), Point: (-0.47453, 0, 0.88024)Sound pressure level (dB), Point: (-0.48986, 0, 0.8718)Sound pressure level (dB), Point: (-0.50504, 0, 0.86309)Sound pressure level (dB), Point: (-0.52007, 0, 0.85412)Sound pressure level (dB), Point: (-0.53494, 0, 0.84489)Sound pressure level (dB), Point: (-0.54964, 0, 0.8354)Sound pressure level (dB), Point: (-0.56418, 0, 0.82565)Sound pressure level (dB), Point: (-0.57854, 0, 0.81565)Sound pressure level (dB), Point: (-0.59273, 0, 0.8054)Sound pressure level (dB), Point: (-0.60673, 0, 0.7949)Sound pressure level (dB), Point: (-0.62055, 0, 0.78416)Sound pressure level (dB), Point: (-0.63418, 0, 0.77318)Sound pressure level (dB), Point: (-0.64762, 0, 0.76197)Sound pressure level (dB), Point: (-0.66085, 0, 0.75052)Sound pressure level (dB), Point: (-0.67389, 0, 0.73884)Sound pressure level (dB), Point: (-0.68671, 0, 0.72693)Sound pressure level (dB), Point: (-0.69933, 0, 0.7148)Sound pressure level (dB), Point: (-0.71173, 0, 0.70245)Sound pressure level (dB), Point: (-0.72392, 0, 0.68989)Sound pressure level (dB), Point: (-0.73588, 0, 0.67711)Sound pressure level (dB), Point: (-0.74762, 0, 0.66413)Sound pressure level (dB), Point: (-0.75913, 0, 0.65094)Sound pressure level (dB), Point: (-0.7704, 0, 0.63756)Sound pressure level (dB), Point: (-0.78144, 0, 0.62398)Sound pressure level (dB), Point: (-0.79224, 0, 0.61021)Sound pressure level (dB), Point: (-0.8028, 0, 0.59625)Sound pressure level (dB), Point: (-0.81311, 0, 0.58211)Sound pressure level (dB), Point: (-0.82318, 0, 0.56779)Sound pressure level (dB), Point: (-0.83299, 0, 0.55329)Sound pressure level (dB), Point: (-0.84254, 0, 0.53863)Sound pressure level (dB), Point: (-0.85184, 0, 0.5238)Sound pressure level (dB), Point: (-0.86088, 0, 0.50882)Sound pressure level (dB), Point: (-0.86965, 0, 0.49367)Sound pressure level (dB), Point: (-0.87816, 0, 0.47838)Sound pressure level (dB), Point: (-0.88639, 0, 0.46293)Sound pressure level (dB), Point: (-0.89436, 0, 0.44735)Sound pressure level (dB), Point: (-0.90205, 0, 0.43163)Sound pressure level (dB), Point: (-0.90947, 0, 0.41578)Sound pressure level (dB), Point: (-0.9166, 0, 0.3998)Sound pressure level (dB), Point: (-0.92346, 0, 0.38369)Sound pressure level (dB), Point: (-0.93003, 0, 0.36747)Sound pressure level (dB), Point: (-0.93632, 0, 0.35114)Sound pressure level (dB), Point: (-0.94232, 0, 0.3347)Sound pressure level (dB), Point: (-0.94804, 0, 0.31816)Sound pressure level (dB), Point: (-0.95346, 0, 0.30152)Sound pressure level (dB), Point: (-0.95859, 0, 0.28478)Sound pressure level (dB), Point: (-0.96343, 0, 0.26796)Sound pressure level (dB), Point: (-0.96797, 0, 0.25106)Sound pressure level (dB), Point: (-0.97222, 0, 0.23408)Sound pressure level (dB), Point: (-0.97616, 0, 0.21703)Sound pressure level (dB), Point: (-0.97981, 0, 0.19992)Sound pressure level (dB), Point: (-0.98316, 0, 0.18274)Sound pressure level (dB), Point: (-0.98621, 0, 0.1655)Sound pressure level (dB), Point: (-0.98895, 0, 0.14822)Sound pressure level (dB), Point: (-0.9914, 0, 0.13089)Sound pressure level (dB), Point: (-0.99354, 0, 0.11352)Sound pressure level (dB), Point: (-0.99537, 0, 0.096112)Sound pressure level (dB), Point: (-0.9969, 0, 0.078677)Sound pressure level (dB), Point: (-0.99812, 0, 0.061218)Sound pressure level (dB), Point: (-0.99904, 0, 0.043741)Sound pressure level (dB), Point: (-0.99966, 0, 0.02625)Sound pressure level (dB), Point: (-0.99996, 0, 0.0087508)Sound pressure level (dB), Point: (-0.99996, 0, -0.0087508)Sound pressure level (dB), Point: (-0.99966, 0, -0.02625)Sound pressure level (dB), Point: (-0.99904, 0, -0.043741)Sound pressure level (dB), Point: (-0.99812, 0, -0.061218)Sound pressure level (dB), Point: (-0.9969, 0, -0.078677)Sound pressure level (dB), Point: (-0.99537, 0, -0.096112)Sound pressure level (dB), Point: (-0.99354, 0, -0.11352)Sound pressure level (dB), Point: (-0.9914, 0, -0.13089)Sound pressure level (dB), Point: (-0.98895, 0, -0.14822)Sound pressure level (dB), Point: (-0.98621, 0, -0.1655)Sound pressure level (dB), Point: (-0.98316, 0, -0.18274)Sound pressure level (dB), Point: (-0.97981, 0, -0.19992)Sound pressure level (dB), Point: (-0.97616, 0, -0.21703)Sound pressure level (dB), Point: (-0.97222, 0, -0.23408)Sound pressure level (dB), Point: (-0.96797, 0, -0.25106)Sound pressure level (dB), Point: (-0.96343, 0, -0.26796)Sound pressure level (dB), Point: (-0.95859, 0, -0.28478)Sound pressure level (dB), Point: (-0.95346, 0, -0.30152)Sound pressure level (dB), Point: (-0.94804, 0, -0.31816)Sound pressure level (dB), Point: (-0.94232, 0, -0.3347)Sound pressure level (dB), Point: (-0.93632, 0, -0.35114)Sound pressure level (dB), Point: (-0.93003, 0, -0.36747)Sound pressure level (dB), Point: (-0.92346, 0, -0.38369)Sound pressure level (dB), Point: (-0.9166, 0, -0.3998)Sound pressure level (dB), Point: (-0.90947, 0, -0.41578)Sound pressure level (dB), Point: (-0.90205, 0, -0.43163)Sound pressure level (dB), Point: (-0.89436, 0, -0.44735)Sound pressure level (dB), Point: (-0.88639, 0, -0.46293)Sound pressure level (dB), Point: (-0.87816, 0, -0.47838)Sound pressure level (dB), Point: (-0.86965, 0, -0.49367)Sound pressure level (dB), Point: (-0.86088, 0, -0.50882)Sound pressure level (dB), Point: (-0.85184, 0, -0.5238)Sound pressure level (dB), Point: (-0.84254, 0, -0.53863)Sound pressure level (dB), Point: (-0.83299, 0, -0.55329)Sound pressure level (dB), Point: (-0.82318, 0, -0.56779)Sound pressure level (dB), Point: (-0.81311, 0, -0.58211)Sound pressure level (dB), Point: (-0.8028, 0, -0.59625)Sound pressure level (dB), Point: (-0.79224, 0, -0.61021)Sound pressure level (dB), Point: (-0.78144, 0, -0.62398)Sound pressure level (dB), Point: (-0.7704, 0, -0.63756)Sound pressure level (dB), Point: (-0.75913, 0, -0.65094)Sound pressure level (dB), Point: (-0.74762, 0, -0.66413)Sound pressure level (dB), Point: (-0.73588, 0, -0.67711)Sound pressure level (dB), Point: (-0.72392, 0, -0.68989)Sound pressure level (dB), Point: (-0.71173, 0, -0.70245)Sound pressure level (dB), Point: (-0.69933, 0, -0.7148)Sound pressure level (dB), Point: (-0.68671, 0, -0.72693)Sound pressure level (dB), Point: (-0.67389, 0, -0.73884)Sound pressure level (dB), Point: (-0.66085, 0, -0.75052)Sound pressure level (dB), Point: (-0.64762, 0, -0.76197)Sound pressure level (dB), Point: (-0.63418, 0, -0.77318)Sound pressure level (dB), Point: (-0.62055, 0, -0.78416)Sound pressure level (dB), Point: (-0.60673, 0, -0.7949)Sound pressure level (dB), Point: (-0.59273, 0, -0.8054)Sound pressure level (dB), Point: (-0.57854, 0, -0.81565)Sound pressure level (dB), Point: (-0.56418, 0, -0.82565)Sound pressure level (dB), Point: (-0.54964, 0, -0.8354)Sound pressure level (dB), Point: (-0.53494, 0, -0.84489)Sound pressure level (dB), Point: (-0.52007, 0, -0.85412)Sound pressure level (dB), Point: (-0.50504, 0, -0.86309)Sound pressure level (dB), Point: (-0.48986, 0, -0.8718)Sound pressure level (dB), Point: (-0.47453, 0, -0.88024)Sound pressure level (dB), Point: (-0.45905, 0, -0.88841)Sound pressure level (dB), Point: (-0.44343, 0, -0.89631)Sound pressure level (dB), Point: (-0.42768, 0, -0.90393)Sound pressure level (dB), Point: (-0.41179, 0, -0.91128)Sound pressure level (dB), Point: (-0.39578, 0, -0.91834)Sound pressure level (dB), Point: (-0.37965, 0, -0.92513)Sound pressure level (dB), Point: (-0.3634, 0, -0.93163)Sound pressure level (dB), Point: (-0.34704, 0, -0.93785)Sound pressure level (dB), Point: (-0.33057, 0, -0.94378)Sound pressure level (dB), Point: (-0.31401, 0, -0.94942)Sound pressure level (dB), Point: (-0.29734, 0, -0.95477)Sound pressure level (dB), Point: (-0.28059, 0, -0.95983)Sound pressure level (dB), Point: (-0.26375, 0, -0.96459)Sound pressure level (dB), Point: (-0.24682, 0, -0.96906)Sound pressure level (dB), Point: (-0.22983, 0, -0.97323)Sound pressure level (dB), Point: (-0.21276, 0, -0.9771)Sound pressure level (dB), Point: (-0.19563, 0, -0.98068)Sound pressure level (dB), Point: (-0.17843, 0, -0.98395)Sound pressure level (dB), Point: (-0.16119, 0, -0.98692)Sound pressure level (dB), Point: (-0.14389, 0, -0.98959)Sound pressure level (dB), Point: (-0.12655, 0, -0.99196)Sound pressure level (dB), Point: (-0.10917, 0, -0.99402)Sound pressure level (dB), Point: (-0.091756, 0, -0.99578)Sound pressure level (dB), Point: (-0.074315, 0, -0.99723)Sound pressure level (dB), Point: (-0.056851, 0, -0.99838)Sound pressure level (dB), Point: (-0.039369, 0, -0.99922)Sound pressure level (dB), Point: (-0.021876, 0, -0.99976)Sound pressure level (dB), Point: (-0.0043755, 0, -0.99999)Sound pressure level (dB), Point: (0.013126, 0, -0.99991)Sound pressure level (dB), Point: (0.030624, 0, -0.99953)Sound pressure level (dB), Point: (0.048112, 0, -0.99884)Sound pressure level (dB), Point: (0.065585, 0, -0.99785)Sound pressure level (dB), Point: (0.083038, 0, -0.99655)Sound pressure level (dB), Point: (0.10047, 0, -0.99494)Sound pressure level (dB), Point: (0.11786, 0, -0.99303)Sound pressure level (dB), Point: (0.13522, 0, -0.99082)Sound pressure level (dB), Point: (0.15254, 0, -0.9883)Sound pressure level (dB), Point: (0.16982, 0, -0.98548)Sound pressure level (dB), Point: (0.18704, 0, -0.98235)Sound pressure level (dB), Point: (0.2042, 0, -0.97893)Sound pressure level (dB), Point: (0.2213, 0, -0.97521)Sound pressure level (dB), Point: (0.23834, 0, -0.97118)Sound pressure level (dB), Point: (0.2553, 0, -0.96686)Sound pressure level (dB), Point: (0.27218, 0, -0.96225)Sound pressure level (dB), Point: (0.28898, 0, -0.95734)Sound pressure level (dB), Point: (0.30569, 0, -0.95213)Sound pressure level (dB), Point: (0.3223, 0, -0.94664)Sound pressure level (dB), Point: (0.33882, 0, -0.94085)Sound pressure level (dB), Point: (0.35523, 0, -0.93478)Sound pressure level (dB), Point: (0.37154, 0, -0.92842)Sound pressure level (dB), Point: (0.38773, 0, -0.92177)Sound pressure level (dB), Point: (0.4038, 0, -0.91485)Sound pressure level (dB), Point: (0.41975, 0, -0.90764)Sound pressure level (dB), Point: (0.43557, 0, -0.90015)Sound pressure level (dB), Point: (0.45126, 0, -0.89239)Sound pressure level (dB), Point: (0.46681, 0, -0.88436)Sound pressure level (dB), Point: (0.48221, 0, -0.87605)Sound pressure level (dB), Point: (0.49747, 0, -0.86748)Sound pressure level (dB), Point: (0.51258, 0, -0.85864)Sound pressure level (dB), Point: (0.52753, 0, -0.84954)Sound pressure level (dB), Point: (0.54231, 0, -0.84018)Sound pressure level (dB), Point: (0.55693, 0, -0.83056)Sound pressure level (dB), Point: (0.57138, 0, -0.82068)Sound pressure level (dB), Point: (0.58566, 0, -0.81056)Sound pressure level (dB), Point: (0.59976, 0, -0.80018)Sound pressure level (dB), Point: (0.61367, 0, -0.78956)Sound pressure level (dB), Point: (0.62739, 0, -0.7787)Sound pressure level (dB), Point: (0.64092, 0, -0.7676)Sound pressure level (dB), Point: (0.65426, 0, -0.75627)Sound pressure level (dB), Point: (0.66739, 0, -0.7447)Sound pressure level (dB), Point: (0.68033, 0, -0.73291)Sound pressure level (dB), Point: (0.69305, 0, -0.72089)Sound pressure level (dB), Point: (0.70556, 0, -0.70865)Sound pressure level (dB), Point: (0.71785, 0, -0.6962)Sound pressure level (dB), Point: (0.72993, 0, -0.68353)Sound pressure level (dB), Point: (0.74178, 0, -0.67065)Sound pressure level (dB), Point: (0.7534, 0, -0.65756)Sound pressure level (dB), Point: (0.76479, 0, -0.64428)Sound pressure level (dB), Point: (0.77595, 0, -0.63079)Sound pressure level (dB), Point: (0.78687, 0, -0.61712)Sound pressure level (dB), Point: (0.79755, 0, -0.60325)Sound pressure level (dB), Point: (0.80799, 0, -0.5892)Sound pressure level (dB), Point: (0.81817, 0, -0.57497)Sound pressure level (dB), Point: (0.82811, 0, -0.56056)Sound pressure level (dB), Point: (0.8378, 0, -0.54598)Sound pressure level (dB), Point: (0.84722, 0, -0.53124)Sound pressure level (dB), Point: (0.85639, 0, -0.51633)Sound pressure level (dB), Point: (0.8653, 0, -0.50126)Sound pressure level (dB), Point: (0.87394, 0, -0.48604)Sound pressure level (dB), Point: (0.88231, 0, -0.47067)Sound pressure level (dB), Point: (0.89041, 0, -0.45516)Sound pressure level (dB), Point: (0.89824, 0, -0.43951)Sound pressure level (dB), Point: (0.90579, 0, -0.42372)Sound pressure level (dB), Point: (0.91307, 0, -0.4078)Sound pressure level (dB), Point: (0.92007, 0, -0.39176)Sound pressure level (dB), Point: (0.92678, 0, -0.3756)Sound pressure level (dB), Point: (0.93321, 0, -0.35932)Sound pressure level (dB), Point: (0.93936, 0, -0.34293)Sound pressure level (dB), Point: (0.94522, 0, -0.32644)Sound pressure level (dB), Point: (0.95079, 0, -0.30985)Sound pressure level (dB), Point: (0.95606, 0, -0.29316)Sound pressure level (dB), Point: (0.96105, 0, -0.27639)Sound pressure level (dB), Point: (0.96574, 0, -0.25952)Sound pressure level (dB), Point: (0.97013, 0, -0.24258)Sound pressure level (dB), Point: (0.97423, 0, -0.22557)Sound pressure level (dB), Point: (0.97803, 0, -0.20848)Sound pressure level (dB), Point: (0.98153, 0, -0.19133)Sound pressure level (dB), Point: (0.98472, 0, -0.17413)Sound pressure level (dB), Point: (0.98762, 0, -0.15687)Sound pressure level (dB), Point: (0.99021, 0, -0.13956)Sound pressure level (dB), Point: (0.9925, 0, -0.12221)Sound pressure level (dB), Point: (0.99449, 0, -0.10482)Sound pressure level (dB), Point: (0.99617, 0, -0.087398)Sound pressure level (dB), Point: (0.99755, 0, -0.06995)Sound pressure level (dB), Point: (0.99862, 0, -0.052482)Sound pressure level (dB), Point: (0.99939, 0, -0.034997)Sound pressure level (dB), Point: (0.99985, 0, -0.017501)Sound pressure level (dB), Point: (1, 0, -2.4493E-16)
1000                     91.2779692065964         91.42203395941473        91.51304531955455        91.53837602452533        91.49119620261565        91.37060993746671        91.18228095635409        90.9396455347804         90.66542961766643        90.39252308831936        90.16236038180763        90.01858939753762        89.99565448056943        90.10653656920041        90.33728323507573        90.6523918260479         91.00696395450797        91.35798872749612        91.67050657857723        91.9190211782475         92.08637087318222        92.16191489827047        92.14001601058264        92.01921033382504        91.80221037502905        91.49682551691532        91.1178743197044         90.68992569845408        90.25035287885947        89.84992777386691        89.54774013686843        89.39700950421297        89.42549681569595        89.62308377371676        89.94696795229277        90.33992721946538        90.74796380863464        91.1293203995261         91.45578208931505        91.71032146239598        91.88406599206068        91.97386999866062        91.98078408073613        91.909345607133          91.7675349881087         91.5672371971214         91.32500225346298        91.0627476294337         90.8077770487103         90.59122642519135        90.4441583649442         90.3915033866526         90.44580647918494        90.6038991122881         90.84848069810914        91.15364667106546        91.4913544138659         91.83624376191045        92.16798793874213        92.47169053424395        92.73722387112787        92.95821301889313        93.13104729591956        93.25405231928531        93.32687906431603        93.35006617041103        93.32474058659795        93.2524207062693         93.13489340751774        92.97414410052234        92.77232523785148        92.53175351862706        92.25492940508713        91.9445748424714         91.60368645049428        91.23560206730738        90.84407841439227        90.43337677720538        90.00835187915192        89.57453648860496        89.1382107569109         88.70644108585935        88.2870691202898         87.88862849383           87.52016710709283        87.19095827818111        86.91009703550505        86.68599848483478        86.52584091281737        86.43502071631131        86.41670045327285        86.47152724062155        86.59757362018209        86.7905122037162         87.0439910515172         87.35014260959969        87.70014431474982        88.08475482588585        88.49477032324612        88.92137140618286        89.35635488010755        89.7922616302205         90.22242084287676        90.6409334001201         91.04261559245717        91.42292051329527        91.7778501826862         92.10386752594323        92.39781423061086        92.65683833447754        92.8783341138353         93.05989635687196        93.19929135790355        93.29444795323069        93.34347372260581        93.34470427839597        93.29679761212824        93.19889102312072        93.05084525422512        92.85360835956133        92.60973773376372        92.3241152870799         92.00483466871661        91.66430161875908        91.32009209743997        90.9952109529259         90.71679418082826        90.51258127515558        90.40501035097401        90.40481573341877        90.50717466872223        90.69266595182613        90.9324491957024         91.19477843335042        91.45010846812754        91.67376094735276        91.84657054299853        91.95442532322068        91.98747572776539        91.939491368441          91.80763139450323        91.59280183687221        91.30075833097635        90.94408982672005        90.54503064604822        90.13841107168838        89.77267302435564        89.50517105211163        89.38848688590937        89.45084579547364        89.68286428948096        90.04167134127074        90.46877357808694        90.90804937834248        91.31529699483349        91.65987112800093        91.92242556276469        92.09195183134086        92.16337148487088        92.13611157329166        92.01366755099644        91.80402863234886        91.5208760846975         91.18532423739924        90.82756646029833        90.48701623310512        90.20875349529001        90.03460492240063        89.99057227526366        90.07713655375868        90.26929971342076        90.52637428670513        90.80467392793972        91.06658339833265        91.28429911270638        91.43991904964686        91.52407484501967        91.5344989962422         91.47509949691816        91.35560820236286        91.1915681064936         91.0041735951628         90.81923936306745        90.66453629366798        90.56514169892282        90.53770036578122        90.5859705026852         90.69986814863313        90.85864511606263        91.03641416819067        91.2074716288925         91.3498464383118         91.44691598194855        91.48772644842654        91.46676410721724        91.38370705917545        91.24342307335112        91.05625009121715        90.8383695253109         90.61181077245641        90.40334548446157        90.24147526921828        90.15130325263145        90.14847818818413        90.23480096418919        90.39789898338277        90.61515339745362        90.85966958162413        91.10559065836988        91.33131629636061        91.52069933909864        91.66295345836352        91.7519997118118         91.78575423591985        91.76557769790102        91.69594295687467        91.58427785576337        91.44087120086849        91.27867021556145        91.11275131124256        90.95925038722429        90.83365507856676        90.7486252663603         90.71184718058296        90.72462663665355        90.781767206637          90.87277526521619        90.98389995820489        91.10029392412167        91.20773555848879        91.29368518330156        91.34772709916687        91.36158234543404        91.32888882725936        91.24490840511541        91.10622123774507        90.91052848436055        90.65655058418619        90.34407487811622        89.97419278592025        89.54978868874312        89.07636379061714        88.56328335254415        88.0254794769991         87.48543109972778        86.97474734866918        86.53384206545638        86.20758052355384        86.03564906301           86.04020181496753        86.217659329946          86.54055575009113        86.96802648575942        87.45782514008418        87.97417980137683        88.49051845401995        88.98889031508985        89.45809576131686        89.8917155967666         90.28650286397765        90.64121339004686        90.95580601225902        91.2309144986034         91.46750617520446        91.66666427774132        91.82945061724773        91.95681975377921        92.04956597019881        92.1082910788531         92.13338553823819        92.12501831169538        92.08313293887797        92.00744882005307        91.89746804113545        91.75248946128457        91.57163352581952        91.35388370464545        91.09815407151986        90.8033980150112         90.46878134643377        90.09395529206877        89.67948199330894        89.22748660350283        88.74262994952973        88.23349394240368        87.71439750762113        87.2074124311246         86.74379326982901        86.36318713142765        86.1084697974765         86.01539477723462        86.10038321536766        86.35367403224001        86.74286718423221        87.22418865615153        87.75412076317112        88.29641275878849        88.82414895526114        89.3188722525985         89.7686737921606         90.16630646478566        90.50770598814103        90.79096528320734        91.01568968751509        91.18264320639318        91.29361038030422        91.35141126101793        91.36013470162723        91.32527806949332        91.25411598966136        91.15597485403399        91.04235711414282        90.9267377946724         90.82383139950687        90.74819252125769        90.71222251955345        90.72398200953549        90.7854844950281         90.89212488806417        91.03348823004531        91.19521512155194        91.36124593689131        91.51580503825991        91.64478873075119        91.73654063117864        91.78218813400284        91.77576594452944        91.71432479733403        91.59816780868745        91.43129389382779        91.22204684720069        90.98383809691894        90.73559725831953        90.50132477905325        90.30794302489889        90.18094623025489        90.13851162416658        90.18618416289561        90.31490358251098        90.50357115470558        90.72463849266052        90.949952950087          91.15487304347488        91.32024467239269        91.43284628112328        91.48512379408943        91.47482455483751        91.40484923840718        91.28339491457487        91.12424188219097        90.94678987831622        90.77518762903324        90.63580037479797        90.55267715585066        90.54184042014406        90.60661538656299        90.73641353090937        90.90966812520276        91.09927286039571        91.2779692065964
